512
 Atoms. Timestep: 2000
Ar 6.65521 2.32862 2.94453
Ar 1.3239 6.7581 0.605799
Ar 0.95448 0.901617 8.85046
Ar 6.41597 8.71778 1.70269
Ar 5.77591 0.468433 0.0297092
Ar 7.96993 3.58223 0.0285692
Ar 7.96953 9.82367 0.387569
Ar 8.83025 9.09001 4.07537
Ar 2.32839 7.02366 1.17098
Ar 9.7726 0.623552 6.98836
Ar 7.33468 0.666477 2.1391
Ar 8.79203 1.04194 6.26702
Ar 3.10969 1.55562 9.3564
Ar 7.80672 1.82698 2.14026
Ar 9.29394 1.57049 1.14039
Ar 9.08839 2.4631 8.76001
Ar 6.3192 8.86331 5.94846
Ar 0.072021 3.81511 5.66124
Ar 1.23533 3.07128 8.57351
Ar 4.38125 1.6441 9.60618
Ar 5.24604 2.6435 8.3797
Ar 7.60906 5.05964 1.15571
Ar 4.40887 4.88051 6.59394
Ar 4.00283 1.21593 8.28691
Ar 5.79424 1.51257 7.96749
Ar 9.54656 2.69176 9.99492
Ar 2.68589 4.60685 9.82672
Ar 7.67205 4.76344 3.68262
Ar 3.92771 0.670267 9.32478
Ar 6.11858 9.08322 3.14281
Ar 8.05542 2.56231 8.74073
Ar 8.26873 3.23004 5.60814
Ar 2.80791 5.62359 9.46929
Ar 6.27213 5.89059 0.164174
Ar 2.03562 3.72891 1.25707
Ar 5.43881 6.67954 0.479392
Ar 8.20917 2.60311 0.4631
Ar 7.82443 9.44609 2.4656
Ar 5.75614 4.89695 9.97416
Ar 8.60322 6.08626 1.28768
Ar 1.29843 5.21741 1.65385
Ar 6.29489 3.515 8.00078
Ar 4.01526 4.0574 8.39582
Ar 5.44354 6.53056 9.41487
Ar 6.26707 9.67111 0.0640532
Ar 7.59406 8.9659 1.42285
Ar 6.97428 4.37828 1.7758
Ar 7.65094 7.28321 2.29155
Ar 0.828759 7.79235 1.79732
Ar 2.60341 5.0849 1.7563
Ar 4.40846 4.14474 9.47597
Ar 2.21275 7.48682 2.04192
Ar 5.44573 8.00495 2.17941
Ar 4.67538 6.18099 2.3056
Ar 7.53744 6.37401 0.14342
Ar 5.90242 6.60209 3.24134
Ar 0.955285 4.54896 7.26006
Ar 4.45542 5.86318 9.56551
Ar 1.20996 9.12022 7.03276
Ar 4.03927 8.01519 3.82278
Ar 8.247 9.79429 3.51166
Ar 5.58799 9.88853 2.31567
Ar 7.20987 9.1256 0.227943
Ar 0.965344 1.81572 1.84344
Ar 2.36597 1.03666 5.85495
Ar 0.366891 8.91505 9.9105
Ar 1.63906 0.626495 9.63433
Ar 6.74346 0.0197575 9.24951
Ar 1.31334 9.67121 9.14634
Ar 4.09199 2.39705 1.92228
Ar 8.99895 2.75884 1.60612
Ar 8.41355 0.178903 1.3027
Ar 0.768108 3.58722 7.80032
Ar 8.65887 9.02103 8.39492
Ar 1.46247 3.15744 2.8836
Ar 5.27177 0.280019 0.999901
Ar 1.18508 1.97829 8.92318
Ar 0.411071 0.271303 7.83908
Ar 8.75722 4.20458 9.63524
Ar 7.92721 0.735281 8.62561
Ar 1.55036 5.02848 9.07625
Ar 1.78809 1.80288 1.28716
Ar 3.30622 3.98001 2.87184
Ar 4.46858 1.52591 1.11727
Ar 2.71203 0.415319 9.66538
Ar 7.9452 1.98805 9.75267
Ar 7.68524 3.36462 3.78047
Ar 1.71881 2.07523 3.09412
Ar 2.36671 3.13889 2.3315
Ar 1.84532 3.92308 6.92017
Ar 4.04123 5.90265 4.20435
Ar 8.66431 1.16635 0.407949
Ar 2.64509 6.24682 2.41702
Ar 6.68306 3.30355 1.96717
Ar 9.8466 4.26654 9.50523
Ar 5.10151 3.47674 0.510829
Ar 9.11905 4.89316 3.88344
Ar 1.55892 4.83823 10.0635
Ar 0.249789 8.12165 0.858643
Ar 1.7151 6.11356 9.37955
Ar 6.02213 6.51065 4.48786
Ar 4.98293 1.03363 0.317869
Ar 3.73406 5.12012 7.60824
Ar 8.78687 7.24554 3.03905
Ar 0.0198942 0.620527 1.72699
Ar 8.22198 7.06367 4.89226
Ar 1.85424 8.57664 2.01488
Ar 8.85379 8.28865 3.44384
Ar 4.00245 5.51236 0.607734
Ar 6.91934 6.10735 1.16237
Ar 6.60035 2.81367 6.41945
Ar 9.91432 6.90196 3.6431
Ar 2.33261 7.19203 0.0926885
Ar 8.62798 3.23896 8.37874
Ar 9.54746 3.4256 9.05339
Ar 2.70588 8.22421 0.0408877
Ar 4.55381 4.96642 3.16194
Ar 2.8085 9.38686 2.24829
Ar 6.59061 8.09792 3.55899
Ar 9.55453 8.83155 0.521133
Ar 8.58432 9.18242 1.06052
Ar 3.70572 6.92943 9.67644
Ar 1.31346 2.5867 6.9596
Ar 3.31219 7.7743 1.19878
Ar 7.69461 8.82321 3.37987
Ar 7.03875 8.58711 2.47823
Ar 4.08128 5.63207 1.6104
Ar 0.265736 9.73601 9.33904
Ar 2.08354 7.95999 9.21009
Ar 1.05715 3.22865 0.759921
Ar 2.34806 1.07397 0.704608
Ar 3.53566 2.57074 1.02426
Ar 7.42405 0.57001 4.41143
Ar 5.3399 2.31388 9.40364
Ar 2.44721 9.30177 7.35711
Ar 6.71547 3.39563 3.1877
Ar 0.6375 2.25315 0.548885
Ar 6.07449 8.74992 0.521048
Ar 4.69668 2.69502 3.68247
Ar 3.22046 1.6738 0.543833
Ar 8.40225 9.73796 9.22551
Ar 6.88043 4.51162 0.217216
Ar 7.58583 3.82133 0.976863
Ar 9.37472 2.39981 7.74925
Ar 0.0183999 1.77295 9.04539
Ar 2.04773 1.66228 9.65218
Ar 2.37525 2.74525 1.29755
Ar 2.31167 1.93802 8.26485
Ar 6.19133 5.19027 1.48849
Ar 3.57307 1.03932 1.78152
Ar 5.75193 3.63685 5.07362
Ar 9.05706 3.23308 2.72004
Ar 9.81552 9.69889 3.98363
Ar 1.76937 5.39438 4.03783
Ar 1.17211 3.09711 1.93635
Ar 2.69026 2.56677 3.15313
Ar 6.34851 2.27615 8.79605
Ar 3.0501 4.79681 0.729212
Ar 6.52173 4.59666 3.59524
Ar 0.966445 2.45793 3.93428
Ar 6.68428 7.26002 8.71045
Ar 8.9922 9.33047 2.82495
Ar 3.67684 6.78842 0.6397
Ar 2.00903 4.15528 3.45269
Ar 7.00539 7.01614 3.08196
Ar 5.58943 2.25796 2.69765
Ar 4.63049 3.26761 8.93972
Ar 8.09716 6.25373 2.73283
Ar 1.63527 5.46519 2.86197
Ar 8.59385 8.50867 7.48701
Ar 2.52059 9.58894 0.341234
Ar 3.31909 7.36313 2.71098
Ar 2.87091 5.62243 3.59521
Ar 6.98257 1.29249 3.12746
Ar 8.13326 8.06989 6.19675
Ar 7.77995 7.62841 3.28863
Ar 9.09172 9.82408 6.53958
Ar 3.41282 1.97548 2.5575
Ar 9.31113 9.63652 1.51647
Ar 2.91743 8.2235 2.40042
Ar 4.17619 0.756886 6.64288
Ar 1.96714 5.61364 7.94219
Ar 6.50348 3.63931 4.32606
Ar 9.90272 9.25103 5.11858
Ar 7.91973 0.938174 2.89692
Ar 0.801822 9.6961 1.61706
Ar 9.68889 8.0578 2.04991
Ar 4.52706 7.97372 0.840157
Ar 3.59527 5.56869 2.69007
Ar 5.83021 5.60623 3.85927
Ar 9.01863 4.181 1.00073
Ar 10.0317 9.94448 6.17253
Ar 0.179875 1.20979 3.40263
Ar 3.57139 1.29196 5.85569
Ar 8.83868 1.25242 2.37404
Ar 1.18055 6.48934 2.78695
Ar 9.19469 7.65283 8.16939
Ar 3.95642 6.62482 3.1981
Ar 7.01771 6.07947 2.14503
Ar 0.227187 9.89486 0.336111
Ar 2.54585 4.81964 2.86515
Ar 9.90184 1.81453 2.1135
Ar 1.42018 1.48881 0.371567
Ar 1.93378 9.55953 1.51109
Ar 8.04938 7.93826 4.26344
Ar 4.39378 7.48849 2.9126
Ar 9.75442 3.73185 6.70899
Ar 9.03163 0.859192 9.14074
Ar 0.0849765 3.33256 2.11247
Ar 2.05899 7.57519 6.37805
Ar 0.419825 2.38953 2.90963
Ar 4.92152 1.67422 4.87197
Ar 3.13121 9.8994 1.1746
Ar 7.68267 2.10688 1.20551
Ar 6.77769 2.04387 5.38353
Ar 1.29982 0.771648 1.42431
Ar 7.63317 2.74381 2.70476
Ar 3.30949 3.64052 1.79867
Ar 3.45949 2.91336 5.30385
Ar 5.00807 3.91586 4.20104
Ar 5.30412 3.7502 6.42382
Ar 7.47929 0.696721 0.0328894
Ar 6.53713 5.34319 9.26536
Ar 0.568672 3.44627 3.15416
Ar 6.81637 5.36367 2.8185
Ar 1.00336 8.19601 3.72014
Ar 1.31173 7.49586 2.92471
Ar 3.44952 7.49847 5.95108
Ar 3.35217 9.18393 5.77629
Ar 6.39203 4.01284 6.23388
Ar 6.10276 7.86311 4.69825
Ar 8.22881 5.44206 6.66971
Ar 0.0593251 8.16263 5.56977
Ar 3.13218 4.66826 8.76447
Ar 7.43119 8.52104 6.82198
Ar 3.68856 7.47175 4.64574
Ar 5.50343 4.48187 3.44501
Ar 6.14012 6.36787 6.69255
Ar 6.76542 6.21491 3.7103
Ar 7.03033 7.25293 4.29812
Ar 8.69124 1.45438 8.39957
Ar 0.432034 8.81689 1.59308
Ar 1.3332 8.67112 1.095
Ar 3.7567 9.16221 2.88549
Ar 4.3417 5.30578 5.55766
Ar 5.21733 5.98796 5.61451
Ar 5.7639 7.39354 6.62671
Ar 1.23981 6.6004 1.63209
Ar 8.85767 3.26875 6.94343
Ar 0.929719 6.37325 6.68544
Ar 1.028 8.44056 5.03682
Ar 0.871395 8.55039 2.6811
Ar 5.49733 9.174 5.06783
Ar 8.56382 0.851372 4.07089
Ar 7.37015 7.89446 5.41323
Ar 10.0279 9.99076 2.76972
Ar 1.33384 9.70476 4.29643
Ar 1.36198 3.4085 3.96622
Ar 1.53706 1.35788 6.78807
Ar 4.17996 10.0321 3.71425
Ar 9.24476 8.29214 4.6968
Ar 4.14556 7.09153 8.81246
Ar 6.85735 9.66322 1.91731
Ar 9.75713 4.16502 4.83261
Ar 0.688905 3.27203 4.92394
Ar 0.970963 5.20618 5.31355
Ar 0.797772 0.216408 3.45036
Ar 5.57893 0.29415 4.55729
Ar 3.76101 3.42829 4.11514
Ar 7.12542 1.77849 4.24995
Ar 9.36416 0.556227 3.2115
Ar 8.48713 5.14937 4.84029
Ar 3.06323 9.24166 4.05874
Ar 3.27671 1.95664 4.02212
Ar 2.89869 1.46827 4.85348
Ar 4.50177 3.1202 5.00092
Ar 4.67781 0.30541 1.91937
Ar 6.84853 0.55365 7.18162
Ar 8.57868 3.71381 4.27514
Ar 0.503948 5.85801 3.33982
Ar 5.94289 4.22233 2.60048
Ar 9.24235 5.09177 2.11626
Ar 2.08096 2.22842 4.17762
Ar 7.50002 5.97313 5.71528
Ar 8.94516 4.98408 0.403874
Ar 6.40932 4.60913 4.66445
Ar 8.10764 4.84103 2.47708
Ar 7.9652 6.71143 7.84637
Ar 9.98682 3.2997 0.731001
Ar 2.79767 3.43376 3.85186
Ar 0.652063 0.80439 2.54917
Ar 2.26523 5.02424 6.45609
Ar 2.12661 6.77287 3.36011
Ar 5.55163 3.3901 3.45738
Ar 5.22134 5.75072 1.04176
Ar 5.36867 5.48591 6.73382
Ar 5.64466 6.95025 5.52466
Ar 0.639137 5.13879 4.10596
Ar 2.50419 9.60615 5.34604
Ar 3.01712 6.45572 6.05636
Ar 4.94842 7.66978 4.50712
Ar 5.81626 2.67598 4.10185
Ar 9.11001 9.67889 7.65491
Ar 7.22303 3.26544 5.09852
Ar 2.8242 4.45568 7.27029
Ar 9.92167 8.88081 3.24931
Ar 3.28082 8.44287 3.40089
Ar 5.1421 4.85138 4.50304
Ar 5.05534 6.58458 6.82935
Ar 8.45129 0.752971 7.32248
Ar 4.69093 6.4949 4.92208
Ar 5.31709 8.09348 9.05716
Ar 9.47371 3.12058 5.32291
Ar 0.370952 0.863952 9.78608
Ar 2.21485 7.89066 3.33916
Ar 3.46412 9.90164 8.33396
Ar 4.80652 6.87221 3.83726
Ar 4.11889 2.18275 5.93148
Ar 9.41358 1.70766 4.24522
Ar 7.06456 0.110846 5.82699
Ar 9.27816 6.12075 5.63987
Ar 1.52001 7.16112 9.42968
Ar 5.32829 8.14141 5.82737
Ar 5.99004 1.4879 3.78867
Ar 5.09939 10.0283 6.78514
Ar 7.21847 6.1479 6.66527
Ar 9.37764 9.27343 9.47157
Ar 9.59318 5.74372 4.60763
Ar 2.76427 5.9463 4.76756
Ar 8.29189 7.22303 6.92274
Ar 4.54123 7.4063 6.35924
Ar 3.45242 0.601472 7.36124
Ar 6.85972 1.60289 1.75744
Ar 4.28412 6.0111 6.49288
Ar 5.69485 9.45952 7.74706
Ar 5.32817 8.58395 6.87772
Ar 9.7615 3.4746 7.94275
Ar 9.91876 4.2773 1.60486
Ar 0.951792 8.70379 8.76423
Ar 3.98268 0.653338 4.60843
Ar 4.06124 3.98269 7.30451
Ar 3.88257 8.08831 9.35884
Ar 8.62337 5.99855 9.94528
Ar 9.26845 4.44742 8.23593
Ar 2.43848 2.1067 5.69283
Ar 9.67289 2.79186 3.73705
Ar 2.77234 4.29006 4.54531
Ar 5.97651 4.17596 7.24704
Ar 4.78267 1.08487 7.45544
Ar 7.85652 5.95159 4.31722
Ar 6.96343 4.69726 8.01003
Ar 6.97207 2.23232 7.71288
Ar 7.82112 1.89639 3.52457
Ar 1.68333 2.90851 5.15579
Ar 6.00075 4.50241 8.6191
Ar 5.21799 3.52105 7.71865
Ar 3.09699 6.83776 3.98549
Ar 6.52381 5.24858 6.95624
Ar 1.46013 4.20967 2.6151
Ar 9.47635 6.07893 2.76387
Ar 9.58061 6.88082 4.6813
Ar 0.355243 7.22642 6.15104
Ar 2.17576 6.1268 6.74092
Ar 0.152246 8.66129 4.38104
Ar 5.69824 5.72503 2.19258
Ar 6.38011 6.60194 7.63455
Ar 7.40582 7.20719 6.25679
Ar 9.55666 6.13189 0.961696
Ar 0.672013 5.60589 7.49216
Ar 2.87864 0.0261751 6.50633
Ar 9.03574 6.31657 3.91445
Ar 3.85352 6.38457 8.05645
Ar 7.93827 9.36384 7.3463
Ar 6.42659 8.18404 7.10964
Ar 7.42028 7.94993 8.37791
Ar 0.243095 5.94862 6.00744
Ar 8.06582 9.02108 5.86271
Ar 4.98094 5.6275 7.76898
Ar 3.69905 6.39067 5.12476
Ar 9.13866 1.82491 3.15589
Ar 5.00293 4.35967 5.56005
Ar 6.42876 1.00419 5.37178
Ar 4.73973 9.05145 5.98037
Ar 7.92567 9.721 4.82276
Ar 9.3519 1.26909 7.68145
Ar 3.78653 0.55683 0.296189
Ar 3.56875 0.19568 5.6524
Ar 6.91699 1.73309 0.452726
Ar 3.9869 8.97323 8.85799
Ar 5.84639 9.79623 6.08049
Ar 0.84883 0.56557 6.86492
Ar 8.03574 0.191881 6.54979
Ar 8.07069 2.04749 6.02049
Ar 4.77148 10.0164 5.55118
Ar 1.18618 4.3291 5.79716
Ar 2.47601 2.22188 7.12274
Ar 6.30773 2.73209 4.94483
Ar 8.47393 4.40755 7.2742
Ar 0.818739 3.67055 6.51377
Ar 8.86755 7.37456 4.09844
Ar 0.303378 2.45059 7.34443
Ar 2.15691 7.03985 7.45344
Ar 3.15673 5.17203 5.42243
Ar 3.76192 2.90214 8.08091
Ar 3.05199 7.27504 8.59617
Ar 7.73352 1.27165 6.93451
Ar 5.59123 0.353493 8.18592
Ar 0.504926 4.86792 8.34895
Ar 8.77467 4.29678 6.12926
Ar 2.23038 7.14265 4.28758
Ar 4.15593 3.52165 6.00912
Ar 3.61058 1.50569 6.95887
Ar 5.16913 2.90535 5.86624
Ar 8.27379 3.80992 1.83165
Ar 7.62764 3.3896 7.99351
Ar 7.61813 5.57252 7.56346
Ar 9.84178 6.34433 7.09072
Ar 4.18018 4.28837 4.80725
Ar 2.41541 3.63741 8.87805
Ar 3.49947 4.83411 3.88975
Ar 5.54238 3.20375 1.90222
Ar 5.83326 1.17311 9.39685
Ar 9.93885 7.81894 9.69432
Ar 0.43161 2.70564 9.55255
Ar 0.517348 7.60553 8.67686
Ar 0.0506131 6.42338 8.11134
Ar 6.03386 3.1863 9.15279
Ar 4.5202 4.63366 1.2479
Ar 0.943164 5.26828 6.47132
Ar 7.0049 8.04498 0.839002
Ar 0.0719503 7.69425 2.88453
Ar 8.61014 7.95743 1.50845
Ar 0.819209 6.54962 8.89716
Ar 2.93641 5.68452 8.32958
Ar 2.77734 8.01903 4.39611
Ar 6.89925 3.21654 0.482036
Ar 3.49366 7.77818 7.61822
Ar 0.329882 8.26876 7.28681
Ar 7.92444 0.845135 5.78303
Ar 3.33048 5.45944 6.4306
Ar 1.44279 9.67406 0.355056
Ar 9.00239 5.8936 7.67102
Ar 1.34936 7.37165 8.09771
Ar 3.0364 6.03494 7.34304
Ar 7.16301 8.97657 9.05196
Ar 8.28695 1.28793 1.44598
Ar 3.58071 9.76815 9.71697
Ar 0.135547 8.85928 6.46728
Ar 9.92855 5.33167 9.96663
Ar 6.76847 9.83132 4.8172
Ar 1.59588 8.32458 0.00282219
Ar 1.99476 9.10338 8.31688
Ar 1.44565 10.0336 8.12755
Ar 0.509937 7.26956 7.33669
Ar 5.24049 9.39522 8.95402
Ar 2.24451 0.435565 4.94054
Ar 9.88496 4.60555 7.35662
Ar 4.71945 1.93967 6.83791
Ar 3.36525 8.9086 6.98024
Ar 6.07534 8.79412 9.48126
Ar 6.54285 9.14217 7.22886
Ar 4.41221 0.244999 7.9857
Ar 0.34369 9.19304 8.13386
Ar 4.00851 9.67716 4.7896
Ar 2.28768 3.03544 7.95958
Ar 2.49887 3.57327 5.32873
Ar 5.0266 4.41362 7.18873
Ar 1.84579 0.120442 6.98705
Ar 4.35155 3.01716 6.8863
Ar 6.75618 1.75287 6.53152
Ar 5.85622 2.15504 5.73392
Ar 5.23206 1.26562 5.82059
Ar 3.09482 5.98468 0.955965
Ar 2.06128 4.94197 5.01493
Ar 2.03813 4.41685 8.23236
Ar 1.79505 3.12064 0.116558
Ar 5.08543 4.50693 8.16266
Ar 6.60341 7.22488 10.0543
Ar 5.73433 4.24956 0.68495
Ar 9.27857 7.08981 0.28384
Ar 1.80059 5.76355 5.70086
Ar 2.33833 2.57001 9.19769
Ar 1.27248 4.01655 9.04319
Ar 3.38315 3.97154 9.34906
Ar 3.53806 4.39295 6.11151
Ar 4.54142 2.96752 2.71682
Ar 0.947944 4.10693 1.63462
Ar 0.619829 4.3111 0.209473
Ar 3.24138 1.96961 7.77311
Ar 2.22527 5.67203 0.36938
Ar 3.67008 5.0027 9.7746
Ar 5.0624 9.62031 0.0215325
Ar 5.38194 5.48156 8.76323
Ar 2.88782 3.43459 0.250492
Ar 3.94166 6.83809 1.85278
Ar 8.20094 8.2744 2.55387
Ar 8.74891 8.44165 9.75162
Ar 2.51747 8.2013 8.10274
Ar 4.64901 7.44202 9.9202
Ar 4.99333 8.5545 10.0114
Ar 4.65112 1.24942 2.46372
Ar 7.38708 7.96363 9.59263
Ar 7.55069 5.84609 9.10825
Ar 7.64151 6.93553 9.02398
Ar 4.49477 5.05149 8.90036
Ar 1.01386 8.16123 6.38869
Ar 4.1538 8.79485 1.99379
Ar 2.51878 0.584657 7.99081
Ar 7.46497 5.33473 10.0303
Ar 6.50614 0.579069 0.960771
Ar 1.64171 7.94694 7.17668
Ar 6.11545 6.76561 1.87392
512
 Atoms. Timestep: 2100
Ar 7.01285 2.42629 3.18981
Ar 1.70605 5.86989 0.522871
Ar 0.380764 0.956346 8.22815
Ar 6.40864 9.30924 1.94978
Ar 5.70878 0.511289 9.77103
Ar 7.95306 4.08136 9.69291
Ar 8.12302 9.9214 0.380363
Ar 8.27168 9.23086 4.62287
Ar 2.34939 6.98807 0.834972
Ar 9.96502 0.95951 7.0466
Ar 7.15399 0.479698 1.43394
Ar 9.13547 1.04985 5.95146
Ar 3.12405 1.9585 8.9445
Ar 7.07019 1.8741 2.08421
Ar 9.07232 1.87112 0.737434
Ar 9.02071 1.98864 8.70588
Ar 6.14225 8.96448 6.1788
Ar 0.0541461 4.35593 5.93544
Ar 1.84855 3.35276 9.46473
Ar 4.05396 1.1556 9.32797
Ar 5.33093 2.3593 8.43122
Ar 7.05444 5.94852 1.14918
Ar 4.28175 5.00931 6.33686
Ar 3.90565 0.77107 8.40529
Ar 5.63493 1.56346 7.77344
Ar 8.83118 2.21906 9.88396
Ar 2.08183 4.71871 9.39324
Ar 7.39415 4.62566 2.69869
Ar 4.9682 9.76454 8.85425
Ar 6.10473 9.07289 2.96917
Ar 7.51226 2.3217 8.98054
Ar 8.30356 2.6576 5.47003
Ar 3.27673 5.58682 9.38988
Ar 6.60524 6.02341 0.0918354
Ar 2.09865 3.94584 1.15373
Ar 5.20128 6.90547 0.202734
Ar 7.85435 3.22366 0.426352
Ar 7.81692 9.67374 2.8524
Ar 5.16305 4.94867 0.304392
Ar 9.04965 6.17179 0.817024
Ar 1.57139 5.45211 1.57182
Ar 6.35591 2.72004 8.10101
Ar 3.75074 3.98537 8.37657
Ar 6.25488 6.19141 9.30498
Ar 6.52725 9.90257 0.129848
Ar 7.40938 8.9241 1.52054
Ar 6.78258 5.16611 1.8028
Ar 8.12629 7.37893 2.02643
Ar 0.975696 7.74221 1.69794
Ar 2.43969 4.79623 1.66226
Ar 5.39237 4.26286 9.47394
Ar 1.67939 6.89596 2.33049
Ar 5.62336 8.16627 3.14522
Ar 4.63347 6.0078 2.348
Ar 7.51355 6.75793 0.477862
Ar 5.87713 6.55983 2.41977
Ar 1.96287 4.68387 7.17209
Ar 5.29625 5.72196 9.43509
Ar 1.53302 9.39586 6.89893
Ar 3.92869 7.60162 4.22317
Ar 8.62431 10.0524 3.82969
Ar 6.07442 0.601763 2.72777
Ar 7.4721 8.8264 0.472924
Ar 0.885309 2.40643 1.99254
Ar 2.39544 0.947565 6.3045
Ar 0.46087 8.81351 0.174029
Ar 1.10113 0.483828 9.81079
Ar 6.3267 0.115189 9.03766
Ar 1.59124 9.20381 8.86709
Ar 5.21263 1.66413 1.60479
Ar 8.68774 2.88045 1.28499
Ar 7.95148 9.78403 1.70834
Ar 0.946581 4.08968 7.24757
Ar 8.79152 9.26854 8.86775
Ar 1.49308 3.12184 3.16049
Ar 5.7248 0.0160553 0.852573
Ar 1.38657 2.34748 8.5756
Ar 0.480363 0.076811 7.56549
Ar 9.57092 4.07852 9.67809
Ar 8.14392 0.315071 8.38951
Ar 1.10835 5.433 8.92478
Ar 1.27457 2.28777 0.800321
Ar 3.04669 3.74135 3.28816
Ar 4.24344 1.18373 0.868978
Ar 3.09453 0.993492 9.71208
Ar 8.27849 1.23696 9.61398
Ar 7.47007 3.00961 4.17431
Ar 1.61695 1.62873 3.21948
Ar 2.82606 3.38151 2.13937
Ar 1.77395 3.7841 6.65419
Ar 3.81357 5.41981 3.91568
Ar 8.63988 0.804483 0.452646
Ar 2.32672 5.90055 2.29901
Ar 6.87738 4.01411 1.59424
Ar 0.365769 4.94509 9.40161
Ar 4.65911 3.30731 10.0588
Ar 8.57068 4.57557 4.23958
Ar 1.71191 4.67627 0.323363
Ar 0.89505 7.37338 0.760855
Ar 2.45932 6.45871 9.12054
Ar 6.26449 6.80412 4.60852
Ar 4.98774 0.996085 0.15576
Ar 2.69013 5.4662 7.66765
Ar 9.29578 7.0058 3.04979
Ar 10.0105 1.4104 1.34567
Ar 8.51273 7.23571 4.93346
Ar 1.62369 8.17359 2.85766
Ar 9.07169 8.18562 3.77648
Ar 4.31413 5.53117 10.0087
Ar 6.64899 7.0988 1.75877
Ar 6.76495 2.45329 5.86568
Ar 10.0385 7.07519 3.92268
Ar 3.1222 6.97617 9.73324
Ar 8.90531 3.52972 8.48087
Ar 9.94573 3.02953 9.399
Ar 2.94828 8.45396 9.82904
Ar 4.14041 5.10549 3.00091
Ar 2.12727 9.11423 2.38631
Ar 6.46285 7.9052 4.08174
Ar 9.61847 8.86797 0.618794
Ar 8.45445 9.14747 0.951326
Ar 3.95095 6.60354 0.301632
Ar 1.81825 2.76415 7.29354
Ar 3.30633 7.64413 0.633141
Ar 7.20596 9.4776 4.0866
Ar 7.50242 8.13114 2.43239
Ar 4.26171 5.7307 1.01488
Ar 0.647962 9.72569 8.89101
Ar 2.48862 7.6893 9.07629
Ar 0.65912 3.1596 0.575812
Ar 1.91741 1.03235 0.668039
Ar 4.64296 2.31452 0.597668
Ar 7.1959 0.965761 4.47141
Ar 5.40569 1.7278 9.46193
Ar 2.42375 9.75859 7.03402
Ar 6.85166 3.4281 3.21946
Ar 0.110046 2.0793 0.686318
Ar 6.37753 9.00897 0.782966
Ar 4.82456 1.98222 3.95581
Ar 3.14882 1.93063 0.0703423
Ar 9.02956 0.193256 9.31413
Ar 6.34422 4.059 0.425888
Ar 7.66062 4.4793 1.08929
Ar 8.91259 2.70787 7.55772
Ar 0.27717 1.97822 9.59375
Ar 1.78103 1.47216 9.0668
Ar 2.94646 3.00132 1.12606
Ar 2.35187 2.04548 8.33081
Ar 6.28145 5.0862 0.890027
Ar 3.7938 0.998896 1.90134
Ar 5.69943 3.84591 4.98764
Ar 9.38772 3.03299 2.28752
Ar 9.9914 0.297407 4.00996
Ar 1.59285 5.26566 4.06125
Ar 1.70908 3.10361 1.70521
Ar 2.76607 2.06262 3.06369
Ar 6.30308 2.25281 9.03023
Ar 2.63576 3.9191 0.210903
Ar 6.80183 4.45566 3.56248
Ar 0.909655 2.57262 3.83355
Ar 6.40575 7.47828 9.30706
Ar 9.01767 9.71052 2.81143
Ar 3.20842 6.07835 1.38793
Ar 2.50155 4.56275 3.82313
Ar 6.50052 7.63578 2.7774
Ar 5.36983 1.79605 3.05048
Ar 4.70689 2.60934 9.32635
Ar 8.056 6.50778 3.48372
Ar 1.69835 4.98274 2.81458
Ar 8.33123 8.51212 7.6173
Ar 2.41804 9.73777 9.21794
Ar 2.7884 6.83564 2.25837
Ar 2.48759 5.66935 3.67768
Ar 6.99982 0.868152 3.17148
Ar 8.32462 7.63938 5.9383
Ar 7.89235 7.52306 3.28416
Ar 9.04775 9.74556 6.69821
Ar 3.66144 1.26233 3.23923
Ar 9.26807 9.40825 1.62259
Ar 2.73674 7.94224 2.07621
Ar 4.40113 0.486627 6.395
Ar 1.65557 5.57875 8.0421
Ar 6.07977 3.63913 3.9307
Ar 9.58013 8.83295 5.61594
Ar 7.84398 0.751616 2.28782
Ar 1.2826 0.0100654 1.8043
Ar 9.00298 7.77594 2.36807
Ar 4.82991 7.87577 1.64776
Ar 3.60462 4.81329 1.70184
Ar 6.19262 5.47475 3.89256
Ar 8.83265 3.73116 0.670991
Ar 9.67481 0.241249 5.83466
Ar 0.0562477 1.11093 3.42759
Ar 3.55951 1.24258 5.86275
Ar 8.63957 2.06383 2.00345
Ar 0.839298 6.20211 2.12692
Ar 8.99168 8.34637 8.60039
Ar 3.35874 5.75703 2.42888
Ar 7.51459 6.31723 2.32891
Ar 10.015 9.85341 0.0795698
Ar 2.90492 4.74092 2.72612
Ar 9.93363 2.09387 2.13083
Ar 1.08452 1.56729 0.0643143
Ar 2.29368 9.02761 0.868707
Ar 8.21389 7.94461 4.2704
Ar 4.12986 7.57502 2.79326
Ar 9.26606 3.42007 6.72898
Ar 9.77097 0.161708 8.5119
Ar 0.125437 2.87608 1.38318
Ar 2.77215 9.02591 5.41357
Ar 0.238387 2.62105 2.97425
Ar 4.0405 2.17534 4.78374
Ar 3.61982 9.73373 1.40927
Ar 7.66898 2.40651 1.22373
Ar 7.27211 2.01621 5.11319
Ar 0.865729 1.3913 1.18579
Ar 7.85142 2.99715 3.23303
Ar 3.99632 3.63678 1.76917
Ar 2.92468 2.87714 5.18028
Ar 5.03968 3.43839 4.18954
Ar 5.25425 3.85527 6.31588
Ar 7.27997 0.485038 9.72219
Ar 6.99612 5.41261 9.18737
Ar 9.89884 3.73615 3.25275
Ar 6.41377 5.4911 2.83883
Ar 1.48118 8.41012 4.06443
Ar 0.89505 7.31863 3.76869
Ar 2.88152 7.95055 6.39774
Ar 3.74069 9.4303 5.81361
Ar 6.22946 3.7418 5.96956
Ar 6.35445 8.07522 5.34382
Ar 7.7222 4.99672 7.44781
Ar 9.63247 7.93539 6.21348
Ar 2.97641 4.90342 8.5187
Ar 7.64807 8.06909 6.59267
Ar 3.69259 7.18521 5.2915
Ar 4.95934 4.66754 3.68785
Ar 6.37918 6.33883 6.45673
Ar 7.03907 6.24197 3.37126
Ar 7.34055 7.37161 4.39708
Ar 8.05951 2.14076 8.09052
Ar 10.0326 8.55922 1.79002
Ar 0.991465 8.66031 1.13951
Ar 3.59306 9.58503 2.73559
Ar 3.91327 5.64153 5.49301
Ar 5.01709 5.65718 6.01226
Ar 5.59649 7.17349 6.2927
Ar 1.2022 6.57867 1.29551
Ar 7.97999 3.365 7.51379
Ar 1.2604 6.49576 6.81566
Ar 0.540057 8.71277 4.7904
Ar 0.799428 9.02603 3.17071
Ar 5.43549 8.98538 5.16968
Ar 8.41375 1.0784 3.93172
Ar 7.35188 8.58995 5.49152
Ar 0.62995 9.95246 2.53835
Ar 0.92325 9.51607 4.02971
Ar 1.63688 3.3313 4.31564
Ar 1.29256 1.76332 7.25342
Ar 4.44929 9.91226 3.26504
Ar 9.06614 8.14622 5.01723
Ar 3.91976 7.53906 8.41873
Ar 6.9319 0.0583829 2.50505
Ar 9.99847 4.26553 4.51826
Ar 0.909367 3.2952 5.15547
Ar 0.881648 5.66172 4.7854
Ar 1.09866 0.760933 3.27552
Ar 5.29676 0.30111 4.8011
Ar 4.15985 2.98395 3.85707
Ar 7.18547 2.02738 4.07617
Ar 9.54907 0.537526 2.4287
Ar 8.42833 5.50241 5.09651
Ar 3.44499 9.73362 3.79872
Ar 3.3811 2.21463 3.9956
Ar 2.60934 1.67421 5.07551
Ar 5.00157 2.75109 5.02935
Ar 4.66596 0.274612 1.8414
Ar 6.78506 0.452708 7.61705
Ar 8.90892 3.72062 3.65406
Ar 0.337724 6.09192 3.1125
Ar 6.34582 4.28679 2.62216
Ar 9.00707 5.70936 1.78103
Ar 2.1235 1.78462 4.12332
Ar 8.10774 6.45481 5.8169
Ar 8.33357 5.00415 0.445936
Ar 6.60766 4.80898 4.55192
Ar 8.066 5.11967 1.8583
Ar 7.7317 6.81918 8.19282
Ar 9.7032 3.02842 0.420469
Ar 2.43973 2.80097 3.86238
Ar 0.568617 1.13917 2.26897
Ar 2.42554 4.91588 6.10116
Ar 1.36556 6.26092 3.52928
Ar 5.33672 3.90206 3.2198
Ar 5.4277 6.00698 1.59875
Ar 5.05792 5.46298 7.20123
Ar 5.60057 6.49489 5.50685
Ar 0.269401 5.09487 3.53552
Ar 2.68417 10.0618 5.75033
Ar 3.22419 6.83564 6.29795
Ar 5.29414 7.76151 4.71369
Ar 5.95467 2.31231 3.75841
Ar 9.28505 9.13142 7.72399
Ar 7.19241 3.25165 5.1241
Ar 2.807 4.09974 7.19813
Ar 9.73011 9.27819 3.52163
Ar 2.99948 8.63133 3.12477
Ar 4.77615 5.50538 4.72339
Ar 4.93638 6.49448 7.30702
Ar 9.12671 0.533152 7.71078
Ar 5.10651 6.64941 4.54957
Ar 5.36466 7.7983 8.9817
Ar 9.21193 3.23205 5.28089
Ar 9.68544 0.92469 0.389748
Ar 2.32825 7.33713 3.15171
Ar 3.16916 0.0127335 8.48431
Ar 4.40283 6.42129 3.34742
Ar 3.97765 2.37337 5.79833
Ar 9.93556 1.54497 4.39825
Ar 6.8048 0.18969 6.02319
Ar 9.19037 6.39415 5.06754
Ar 1.32804 7.44849 9.71504
Ar 5.36147 8.1325 5.68986
Ar 6.13192 0.86984 3.92406
Ar 5.46301 0.276453 6.73739
Ar 7.99093 6.93456 7.10859
Ar 9.76599 9.47817 9.1153
Ar 10.0269 5.5404 5.16828
Ar 3.04579 5.86321 4.91544
Ar 8.91783 7.47595 7.36714
Ar 4.57738 7.27527 6.03176
Ar 3.00901 0.595492 7.72495
Ar 6.51595 2.23821 1.23756
Ar 4.13115 6.16353 6.47062
Ar 4.85872 9.21545 8.03635
Ar 5.55234 8.09029 7.09446
Ar 9.97875 3.80096 8.12536
Ar 9.83737 4.12449 1.43365
Ar 1.30962 8.21633 8.93382
Ar 3.47417 0.619852 4.46499
Ar 3.80597 4.37312 7.11133
Ar 3.90286 7.78475 9.57546
Ar 8.14935 5.98649 10.0333
Ar 9.31587 4.67477 8.72579
Ar 2.9666 2.13758 6.11167
Ar 9.89282 2.58488 4.00617
Ar 3.36431 3.49806 4.44861
Ar 6.24857 3.87028 7.00554
Ar 4.68733 1.15232 7.30297
Ar 7.99812 5.31843 3.61355
Ar 7.05358 4.32 7.7869
Ar 7.29752 2.58151 7.61352
Ar 8.10734 2.17907 3.67664
Ar 2.01815 2.50309 4.87217
Ar 6.32769 3.83793 8.5694
Ar 5.47678 3.26906 7.51756
Ar 3.27515 6.80533 4.03443
Ar 6.85352 5.88494 7.20829
Ar 1.85874 4.13364 2.19976
Ar 9.12605 5.68387 2.98719
Ar 0.169541 7.77803 5.07178
Ar 0.322926 7.2017 6.72544
Ar 2.33297 6.10799 6.65084
Ar 10.0416 8.05607 3.97621
Ar 5.4172 5.12533 2.54318
Ar 6.67994 6.44793 8.26413
Ar 7.03306 7.33725 5.90185
Ar 9.64507 7.08129 0.903996
Ar 0.758771 5.61448 7.531
Ar 3.31834 0.089867 6.61457
Ar 8.92584 5.66768 4.06549
Ar 4.13697 6.61617 7.84665
Ar 8.29281 9.73254 7.51531
Ar 6.45798 8.05383 6.6043
Ar 7.61365 7.73689 7.83937
Ar 0.223645 6.0896 6.1203
Ar 8.25559 9.57842 5.51509
Ar 4.0267 5.46186 7.73109
Ar 4.21306 6.37383 4.85139
Ar 9.19667 2.25633 2.98977
Ar 4.98473 4.69973 5.41489
Ar 6.186 0.972736 4.93274
Ar 4.57034 8.86444 6.14139
Ar 8.28819 0.41837 4.74836
Ar 10.0763 1.9999 8.15339
Ar 3.52774 0.452451 0.392592
Ar 3.74871 0.314002 5.60469
Ar 7.28153 1.59565 0.220307
Ar 3.62047 8.99148 8.66147
Ar 5.69481 9.96955 5.78784
Ar 0.870991 0.410247 6.06201
Ar 7.80645 0.0132196 6.45378
Ar 8.25175 1.55887 6.13842
Ar 4.68777 9.97844 5.56895
Ar 1.50396 4.414 5.80158
Ar 2.54492 1.86026 7.234
Ar 6.18989 2.86234 4.69884
Ar 8.27292 4.41382 8.24536
Ar 1.00142 3.16161 6.2238
Ar 8.83668 6.97109 3.97908
Ar 9.98219 2.54685 7.07555
Ar 1.72422 6.56042 7.85096
Ar 3.24057 4.72563 4.96123
Ar 3.42586 2.80035 8.44933
Ar 2.98987 6.97992 8.43028
Ar 7.30611 1.53238 6.88762
Ar 5.68674 0.626991 8.25444
Ar 0.72629 4.67761 8.12296
Ar 8.69872 4.51077 7.1467
Ar 1.82131 7.15684 4.66322
Ar 4.13304 3.3434 6.36489
Ar 3.61412 2.09697 6.85915
Ar 5.91349 2.60671 6.38917
Ar 8.05555 3.25987 2.03029
Ar 7.20545 3.34034 8.4645
Ar 7.29028 5.48587 8.22813
Ar 9.66552 6.77351 7.32696
Ar 4.11928 4.01786 5.24437
Ar 2.79996 3.7624 9.207
Ar 3.49639 4.47041 3.92905
Ar 6.39323 3.17789 2.2952
Ar 6.21522 1.16931 8.97342
Ar 9.58216 8.2008 9.78168
Ar 1.028 2.89268 9.34136
Ar 9.90303 7.65677 8.77116
Ar 0.135932 6.61963 8.76706
Ar 5.60373 3.17067 9.24518
Ar 4.62319 4.65257 1.33318
Ar 1.2749 5.36165 6.24783
Ar 7.09336 7.94333 0.9689
Ar 0.151845 7.81592 2.64502
Ar 8.43778 8.25347 1.43515
Ar 0.521915 6.19777 9.95152
Ar 3.31349 5.94482 8.29555
Ar 2.80383 8.14159 4.17481
Ar 6.86465 3.19778 0.811888
Ar 2.99219 7.76616 7.45581
Ar 9.80297 7.91246 7.74468
Ar 7.76149 0.788338 5.529
Ar 3.24062 5.32314 6.59642
Ar 1.49224 9.71522 0.377226
Ar 8.32216 5.81427 8.40023
Ar 1.4841 6.91837 8.80325
Ar 2.77865 6.7481 7.39499
Ar 6.67094 8.94167 8.65051
Ar 8.13181 1.27962 1.15056
Ar 3.89387 9.86421 9.49895
Ar 0.450428 9.55226 6.53052
Ar 9.73734 5.37879 10.061
Ar 6.68449 9.32629 5.2791
Ar 1.53507 8.76883 0.114894
Ar 1.9662 9.64002 7.92874
Ar 1.22565 0.297017 8.2435
Ar 0.558339 6.73535 7.8256
Ar 4.83067 8.74867 9.06048
Ar 1.83221 0.761947 5.19291
Ar 0.370338 4.88297 6.88105
Ar 4.73042 2.2355 7.35423
Ar 3.86584 8.97556 6.92095
Ar 5.67713 9.25968 9.92555
Ar 6.51818 9.37405 7.20273
Ar 4.44639 0.199142 7.75924
Ar 0.631622 9.09616 7.53618
Ar 4.71129 9.54125 4.56636
Ar 2.35594 3.43106 8.43707
Ar 2.55114 3.77022 5.88755
Ar 5.13583 4.31086 7.33726
Ar 1.46576 0.353985 6.98655
Ar 3.89442 3.30758 7.45569
Ar 6.88235 1.42464 5.85023
Ar 5.60327 1.62761 5.8884
Ar 4.64413 1.37127 5.65676
Ar 3.2761 4.99267 0.660831
Ar 2.09826 4.87956 4.98126
Ar 1.81526 4.53231 8.3645
Ar 2.005 3.0698 0.453684
Ar 4.76046 4.2851 8.40199
Ar 6.50426 7.11628 0.491759
Ar 5.61705 4.13093 1.49262
Ar 9.1161 7.26132 9.88666
Ar 1.85966 5.86776 5.54076
Ar 2.71225 2.74954 9.50683
Ar 1.15001 4.13903 9.25597
Ar 3.70386 3.26194 9.25074
Ar 3.35846 4.48377 6.1931
Ar 4.67011 2.80172 2.90978
Ar 0.741688 4.61609 1.0311
Ar 0.2082 4.22716 0.305264
Ar 3.37721 1.71703 7.98974
Ar 2.36276 5.60172 9.88966
Ar 3.5536 4.58109 9.79464
Ar 4.8891 9.86149 10.0508
Ar 5.48822 5.5448 8.4427
Ar 3.77055 3.16842 0.61694
Ar 4.33375 6.87864 1.92564
Ar 8.42833 8.60182 2.65856
Ar 8.31561 8.09709 9.40624
Ar 1.80616 8.12673 8.12073
Ar 4.60639 6.96206 9.27502
Ar 4.92214 8.36674 0.622233
Ar 4.71897 1.09674 2.51764
Ar 7.28172 7.49658 9.87682
Ar 8.04882 5.26848 9.27752
Ar 7.58745 6.4288 9.33284
Ar 4.162 5.39493 8.98773
Ar 1.4482 8.41902 6.48646
Ar 4.74201 9.29763 2.24604
Ar 2.04905 0.905175 7.6294
Ar 7.14428 5.02683 0.151842
Ar 6.36381 0.776988 0.481095
Ar 0.861618 7.97243 7.32626
Ar 5.32784 7.14444 1.16348
512
 Atoms. Timestep: 2200
Ar 7.05811 2.41058 2.79873
Ar 1.42249 5.44263 0.145974
Ar 0.521659 1.46333 8.21462
Ar 6.35445 9.75846 1.65589
Ar 5.8441 0.334173 9.62968
Ar 7.44585 4.4074 9.8595
Ar 8.01748 9.74817 9.86484
Ar 8.06325 9.46031 4.62956
Ar 2.17126 6.52362 0.10781
Ar 0.0153565 1.44507 6.67859
Ar 7.22277 0.0299767 0.876484
Ar 8.84462 1.40302 5.68467
Ar 3.22593 1.88485 9.17393
Ar 7.07524 1.78564 1.90717
Ar 8.9391 2.29265 0.679234
Ar 9.13877 1.65255 8.63048
Ar 5.85124 9.4485 6.20109
Ar 0.511657 4.46118 5.25977
Ar 1.69578 3.8577 9.61416
Ar 4.03553 0.902495 9.58644
Ar 5.61843 2.10501 8.74239
Ar 7.1562 6.3781 1.9139
Ar 4.02298 4.77089 6.39266
Ar 3.8418 0.603838 8.53058
Ar 5.78708 1.7017 7.49008
Ar 8.54217 2.25184 9.30957
Ar 1.63502 4.95953 9.35362
Ar 7.7076 4.3903 2.16099
Ar 5.49583 9.37994 9.13407
Ar 6.30689 9.47424 3.24431
Ar 7.12253 1.87726 9.35005
Ar 8.32097 2.60554 5.58706
Ar 3.56645 5.64258 9.86509
Ar 7.3665 6.24899 0.589226
Ar 2.40443 3.79502 1.24365
Ar 4.75284 7.29709 9.35922
Ar 7.7395 2.65576 0.31708
Ar 7.91985 9.85168 3.12947
Ar 4.78743 4.96838 0.348989
Ar 9.61706 6.67207 0.14151
Ar 1.44435 5.81239 2.25012
Ar 6.46107 2.48518 8.02196
Ar 3.41405 4.07814 8.41298
Ar 5.33442 6.25533 9.03552
Ar 6.81717 9.7623 9.84451
Ar 7.13282 8.66616 1.60097
Ar 6.55801 5.32134 1.938
Ar 7.84448 7.03856 2.10806
Ar 0.772491 7.90578 1.96049
Ar 2.08752 5.32689 1.43822
Ar 6.50647 4.26929 9.69605
Ar 1.38639 6.81313 2.17664
Ar 5.79194 8.13675 4.02044
Ar 4.92611 5.8308 2.29483
Ar 7.9598 6.98873 0.954379
Ar 6.07891 6.57279 2.24409
Ar 2.17043 4.93319 7.34638
Ar 5.57437 4.8957 9.30597
Ar 0.987387 9.04605 7.2253
Ar 3.60698 7.71706 4.474
Ar 8.57952 0.0554738 3.89925
Ar 6.47122 0.858259 2.73206
Ar 7.7542 8.72648 9.94359
Ar 1.09375 2.58448 2.01459
Ar 2.44676 1.11684 6.58548
Ar 0.379844 8.91105 9.88721
Ar 0.593607 0.261451 9.48935
Ar 6.49862 10.0644 8.5984
Ar 1.65958 8.6364 7.95137
Ar 6.48194 1.26903 0.871243
Ar 8.45859 3.04681 1.16645
Ar 7.65723 9.68758 2.07465
Ar 1.00311 4.34609 6.87387
Ar 8.94568 9.52568 9.53463
Ar 1.36094 3.6488 3.27325
Ar 5.97449 0.154664 0.688999
Ar 1.23671 1.98469 8.73792
Ar 0.722715 0.732234 7.2378
Ar 9.11931 4.19933 9.25829
Ar 7.42114 1.75885 8.33249
Ar 0.947363 5.79557 9.2714
Ar 0.990891 2.69672 0.653554
Ar 2.7616 3.36761 3.63048
Ar 4.03115 1.11918 0.956861